# Force coefficients
# liftDir     : (0.000000e+00 1.000000e+00 0.000000e+00)
# dragDir     : (1.000000e+00 0.000000e+00 0.000000e+00)
# pitchAxis   : (0.000000e+00 0.000000e+00 1.000000e+00)
# magUInf     : 1.000000e+00
# lRef        : 1.000000e-01
# Aref        : 1.000000e-03
# CofR        : (5.000000e-02 5.000000e-02 5.000000e-03)
# Time        	Cm            	Cd            	Cl            	Cl(f)         	Cl(r)         
